128
energy=-402.44493511 config_type=nep2xyz pbc="T T T" virial="0.32982 -0.30725 0.36581 -0.30725 0.30242 -0.21301 0.36581 -0.21301 0.17056" Lattice="17.39075 0.0 0.0 8.693233 15.061503 0.0 8.699047 5.014541 14.194491" Properties=species:S:1:pos:R:3:force:R:3
Te 26.1086 9.95419 12.37993 0.007834 0.008767 0.003308
Te 17.36143 10.01169 12.44823 -0.00206 0.000841 -0.006627
Te 15.20791 13.80186 12.47269 0.003441 -0.001592 0.003051
Te 23.91651 13.81475 12.48439 -0.006004 0.009052 0.024704
Te 30.49356 17.60599 12.36308 -0.006426 -0.005342 0.00628
Te 21.6706 17.62664 12.3876 -0.00789 0.00335 0.017748
Te 23.94312 6.25294 12.37551 0.010243 -0.009494 -0.008354
Te 15.19469 6.31456 12.42546 0.002006 -0.003034 0.001122
Te 13.04691 10.07367 1.79625 0.004047 -0.003134 -0.013987
Te 17.3117 10.0484 1.87247 -0.001931 -0.020635 -0.009532
Te 21.80774 7.4615 5.3607 0.003657 -0.014134 0.005573
Te 10.86628 11.30049 5.27148 0.004155 -0.002973 -0.004876
Te 26.10401 15.05949 5.28812 -0.000981 0.007277 0.014932
Te 21.71057 15.0448 5.34486 0.017685 0.015817 -0.011097
Te 6.522 3.77297 5.26577 -0.001344 -0.00604 -0.006244
Te 10.81978 3.78629 5.34009 -0.000273 0.001426 0.004096
Se 13.05666 10.04415 12.40898 0.0137 0.004167 -0.007899
Se 21.71401 10.003 12.38046 -0.002591 -0.004522 0.001486
Se 28.30625 13.7624 12.39737 0.001716 0.005732 0.010983
Se 19.50458 13.79326 12.43073 0.005793 0.00895 -0.010458
Se 17.34239 17.56005 12.35656 0.008642 -0.001875 0.019453
Se 26.13476 17.60583 12.38382 0.004569 0.003967 -0.008029
Se 10.87225 6.27198 12.45796 0.001133 -0.001816 0.036749
Se 15.24695 6.32777 1.79066 0.004066 -0.001263 0.004217
Se 21.74321 9.99423 1.74104 0.00479 -0.000198 0.00135
Se 10.86761 13.76702 1.84501 0.000943 -0.000987 -0.00473
Se 19.56378 13.71375 1.78779 -0.001737 -0.001935 0.012089
Se 17.4648 2.51036 1.7665 -0.016214 -0.003345 0.001541
Se 8.62161 2.52614 1.75488 0.014108 -0.000286 0.005436
Se 13.00435 2.56217 1.85605 -0.009205 -0.000623 0.001774
Se 8.66877 7.51291 5.34988 -0.00462 -0.000971 0.013012
Se 17.43155 7.51503 5.3778 -0.015202 0.001912 -0.005965
Se 23.92895 11.26659 5.31263 0.014553 -0.030058 -0.003046
Se 15.20197 11.30494 5.35217 -0.009072 0.01717 0.027081
Se 19.5646 11.29419 5.28913 -0.00446 0.004101 -0.022842
Se 17.36097 15.13611 5.35818 0.005813 0.006666 0.01463
Se 19.59573 3.76245 5.32167 0.029963 -0.000922 -0.010375
Se 23.86098 8.7462 8.92691 -0.003141 0.008188 -0.000115
Se 15.28467 8.66814 8.86574 -0.013778 0.024868 -0.008973
Se 19.55929 8.83387 8.81162 0.00416 -0.000208 -0.002976
Se 26.16207 12.53432 8.89047 -0.019986 0.008193 -0.007846
Se 13.09045 12.49197 8.77582 -0.005898 0.010084 0.010093
Se 21.6831 12.56976 8.84091 -0.005999 -0.000919 0.005294
Se 28.19416 16.44254 8.86664 0.014509 -0.010536 -0.004143
Se 19.60665 16.34866 8.82722 0.010553 0.002321 -0.006574
Se 23.95667 16.2514 8.86742 -0.010738 0.008876 0.002887
Se 21.73981 4.98912 8.86059 0.001401 -0.008385 -0.010424
Se 13.04256 5.07088 8.89878 0.001339 -0.000145 -0.012828
S 19.57204 6.2722 12.47788 -0.005619 0.001225 0.003321
S 19.5073 6.22614 1.83263 -0.010008 0.001412 0.005458
S 6.47883 6.34637 1.77453 -0.007922 0.004642 0.000284
S 10.93092 6.17901 1.78134 -0.004 0.008455 -0.000551
S 8.74143 9.98692 1.81561 3.6e-05 -0.008217 -0.002908
S 23.84809 13.91391 1.76511 0.00274 -0.002674 -0.000924
S 15.28053 13.86642 1.74184 -0.001474 -0.00061 0.004477
S 4.37792 2.47696 1.81298 -0.003969 0.002247 0.000258
S 12.96819 7.48386 5.37929 0.005646 0.003072 -0.014467
S 13.07258 15.08996 5.38107 0.000943 0.001047 0.002582
S 15.22059 3.78098 5.28238 -0.003632 0.000437 -0.004296
S 10.87887 8.86545 8.82036 -0.000923 0.000538 0.005935
S 17.33025 12.53458 8.88757 0.000658 0.004583 -0.00981
S 15.1715 16.22385 8.86868 -0.004608 -0.002413 0.000562
S 8.76802 5.01023 8.79884 -0.001572 -0.004143 0.000718
S 17.32086 5.04118 8.80663 -0.002374 0.005983 -0.004289
Pb 8.72441 15.00946 0.08284 -0.011875 0.011883 0.001528
Pb 13.01315 15.10797 0.15834 0.005215 0.007607 -0.006273
Pb 17.46108 15.04611 0.02415 0.015118 0.01658 -0.01436
Pb 12.99358 0.04752 0.10406 -0.005403 0.000979 0.009145
Pb 2.26908 3.72092 0.07324 0.012209 0.000125 0.001432
Pb 6.39965 3.85745 0.15923 -0.004807 -0.000883 -0.006253
Pb 10.91716 3.70254 0.02624 -0.014084 -0.010735 -0.012455
Pb 15.16013 3.8115 0.08711 -0.004397 -0.003904 0.004138
Pb 21.66391 7.44568 0.09377 -0.006054 -0.020184 0.004639
Pb 8.75305 7.55058 0.17966 0.011134 0.003678 0.011508
Pb 12.93305 7.40752 0.02381 0.001334 -0.002484 0.002486
Pb 17.50187 7.4664 0.07543 0.01749 -0.011195 -0.003988
Pb 23.99607 11.38385 0.14085 0.00148 -0.002566 -0.000781
Pb 10.70679 11.26141 0.02164 0.001074 0.002743 -0.000778
Pb 15.26705 11.52327 0.02266 0.003357 -0.006103 -0.020323
Pb 28.27487 16.24722 14.16503 -0.006063 0.009214 0.001145
Pb 2.33495 1.28873 3.53978 -0.003301 -0.010743 0.009899
Pb 15.17873 16.22662 3.48124 -0.027324 0.015349 -0.001172
Pb 10.76835 1.2309 3.47695 0.003753 -0.013514 0.002068
Pb 15.21811 1.33701 3.45846 0.001188 -0.005417 0.007501
Pb 4.28963 5.00096 3.3786 -0.007417 0.002554 -0.000559
Pb 8.67918 5.12519 3.37628 0.01134 0.006859 -0.006976
Pb 13.10516 5.10189 3.58013 0.008344 -0.006102 9.3e-05
Pb 17.41518 5.00945 3.56485 -0.01323 0.012423 -0.017366
Pb 6.61721 8.78628 3.46651 -0.000825 -0.00754 -0.010454
Pb 10.84611 8.60657 3.54824 -0.001312 -0.010942 0.001975
Pb 15.13675 8.69282 3.75549 0.000351 0.010834 -0.007624
Pb 19.5795 8.70719 3.5525 0.005247 0.00664 0.006137
Pb 25.96595 12.49324 3.4063 -0.006096 0.003618 -0.002301
Pb 13.16826 12.72528 3.57648 0.007344 0.005521 0.004974
Pb 17.36304 12.64554 3.61324 -0.009778 0.011577 0.00124
Pb 21.77689 12.4891 3.47236 0.01139 0.001942 0.011987
Pb 13.03904 17.47874 7.12995 -0.012982 0.011944 -0.000549
Pb 17.34491 17.52768 7.22661 -0.003773 0.004529 0.014836
Pb 13.18472 2.59104 7.13321 -0.019135 -0.008776 -0.021828
Pb 17.34459 2.64806 7.07899 -0.01253 -0.000247 0.007328
Pb 6.6347 6.24848 7.24756 -0.003573 0.007578 -0.00392
Pb 10.88306 6.39096 7.15941 -0.001433 0.015687 -0.01229
Pb 15.21735 6.19631 7.05359 0.004401 0.016739 0.015759
Pb 19.50053 6.21721 7.16327 0.011875 -0.009311 -0.000284
Pb 26.05593 9.9881 7.17299 0.008873 0.015259 0.000393
Pb 13.0719 9.90692 7.11233 -0.009037 -0.010373 -0.00449
Pb 17.38598 10.09984 7.11819 0.002826 -0.012081 -0.007223
Pb 21.74126 10.10121 7.09781 -5.5e-05 -0.005163 0.003376
Pb 10.97527 13.88128 7.13294 0.005208 0.002483 -0.002762
Pb 15.21075 13.86386 7.11772 -0.000899 -0.018443 -0.012744
Pb 19.4378 13.75477 7.15302 -0.013431 -0.007307 -0.00917
Pb 23.95999 13.71726 7.17559 -0.014436 -0.018691 0.003352
Pb 6.62909 3.70458 10.43241 0.001005 -0.014425 0.001877
Pb 10.77359 3.83186 10.55854 -0.007952 0.013995 -0.005611
Pb 15.30379 3.75616 10.5249 0.004976 -0.00119 0.007343
Pb 19.4928 3.9088 10.60961 0.006025 0.006443 0.011053
Pb 8.80849 7.44697 10.47506 0.016513 0.003967 -0.004791
Pb 12.95348 7.6006 10.58779 -0.006112 0.016487 0.008383
Pb 17.51022 7.43103 10.57707 -0.013443 -0.011503 -0.010962
Pb 21.61605 7.50629 10.64024 -0.003476 0.00683 0.001527
Pb 10.95813 11.28615 10.5662 5e-06 -0.012614 -0.012361
Pb 15.21107 11.25138 10.50495 0.008338 -0.007467 0.004984
Pb 19.51542 11.35561 10.57082 0.014334 0.011056 -0.00256
Pb 23.85157 11.28276 10.57182 0.007573 -0.01751 0.001497
Pb 13.01326 15.03492 10.5126 0.005931 -0.001332 -0.001716
Pb 17.39529 15.05476 10.54547 0.004588 -0.006157 -0.006754
Pb 21.68525 15.04237 10.5752 0.009622 -0.012209 0.0088
Pb 26.15824 15.07044 10.61994 0.005583 -0.017953 0.011975
128
energy=-393.56598804 config_type=nep2xyz pbc="T T T" virial="54.70192 5.54722 -12.60472 5.54722 40.64657 -7.37164 -12.60472 -7.37164 49.15258" Lattice="17.39075 0.0 0.0 8.693233 15.061503 0.0 8.699047 5.014541 14.194491" Properties=species:S:1:pos:R:3:force:R:3
Te 25.98525 9.98242 12.39041 0.333532 0.253198 -0.206375
Te 17.32185 10.01646 12.35841 0.467105 0.481399 -0.475126
Te 15.0632 13.74045 12.78103 0.821269 0.045417 -1.6273
Te 23.7914 13.79313 12.52816 0.493542 0.083419 -1.172972
Te 30.28021 17.60326 12.417 0.955846 -0.146708 -0.389222
Te 21.2924 17.52107 12.3837 1.914144 1.204778 -0.241178
Te 23.94728 6.34222 12.22374 -0.571363 -0.39645 0.682922
Te 15.19607 6.4137 12.34462 -0.246521 -0.56713 0.333292
Te 13.14503 10.04376 1.72006 -0.957399 -0.283273 0.156496
Te 17.20445 10.01597 1.75187 0.321737 0.51042 0.045972
Te 21.62821 7.34379 5.36709 0.55467 1.155311 -0.425286
Te 10.98308 11.42203 5.4396 -0.51372 -0.522782 -1.457237
Te 25.89725 14.91346 5.33353 0.869263 1.032324 -0.681782
Te 21.93252 15.06169 5.16105 -1.06514 0.034899 0.50655
Te 6.51302 3.852 5.31498 0.074652 0.303478 0.364335
Te 11.0848 3.73142 5.41898 -1.295287 -0.236874 -0.39154
Se 13.12247 10.09755 12.34466 -0.802505 -0.535401 0.475821
Se 21.76725 10.10609 12.24071 -0.251193 -0.382758 0.523632
Se 28.34942 13.81586 12.20431 -0.539456 0.030254 0.221251
Se 19.63945 13.87366 12.22067 -0.467916 -0.289062 0.668373
Se 17.36665 17.52619 12.18395 -0.126523 -0.015224 0.3859
Se 26.11562 17.48833 12.31619 -0.035586 0.399083 0.196376
Se 10.82665 6.26794 12.59801 0.070292 -0.12001 -0.558479
Se 15.12938 6.33438 1.786 0.385841 -0.005163 -0.196449
Se 21.82542 10.04072 1.58166 -0.533949 -0.014068 0.305954
Se 10.73138 13.93132 1.7584 0.315485 -0.206561 0.027332
Se 19.44695 13.81867 1.58976 0.218346 -0.194602 0.274882
Se 17.3706 2.40777 1.72188 0.028343 0.420725 -0.08593
Se 8.78004 2.57839 1.6142 -0.391265 -0.192707 0.442533
Se 12.86867 2.35813 1.70467 0.53363 0.747574 0.289198
Se 8.62721 7.5057 5.20654 0.190475 0.012234 0.558046
Se 17.40517 7.61904 5.17486 -0.295041 -0.426064 0.551215
Se 23.90311 11.30714 5.23125 0.053828 -0.179517 0.020783
Se 15.28137 11.44806 5.24959 -0.287766 -0.365851 -0.072248
Se 19.54077 11.38019 5.39218 -0.077616 0.221808 -0.285278
Se 17.09211 15.13323 5.42415 0.609553 0.059468 -0.352074
Se 19.69525 3.90103 5.29631 -0.438813 -0.443654 -0.195611
Se 23.71928 8.85108 8.72908 0.354065 -0.226079 0.704109
Se 15.09651 8.81672 8.82074 0.337966 -0.346341 0.275185
Se 19.47746 8.98014 8.74268 0.276804 -0.518967 0.346432
Se 26.17911 12.70264 8.76307 -0.221748 -0.525615 0.247823
Se 12.77427 12.46664 8.80142 0.994264 0.276333 -0.162894
Se 21.5896 12.66814 8.74834 0.284794 -0.048266 0.162787
Se 28.04808 16.51619 8.86428 0.609749 -0.02777 0.23837
Se 19.37754 16.41031 8.93289 0.653554 -0.151648 -0.27578
Se 23.89708 16.27869 8.72817 0.398084 -0.080936 0.402824
Se 21.72591 5.04904 8.85781 -0.228991 -0.225661 0.053274
Se 13.12842 5.05083 8.67087 -0.269277 -0.016541 0.629348
S 19.31915 6.43001 12.57196 0.295973 -0.151483 -0.478405
S 19.31253 6.4907 1.99037 -0.166439 -0.297591 -0.119005
S 6.69549 6.31159 1.65622 -0.12406 -0.120798 0.165518
S 10.73196 6.22857 2.13388 0.598177 0.225856 -0.801609
S 8.52419 9.80186 2.08827 0.889793 0.519398 -0.851646
S 23.38386 13.69559 1.5994 1.191104 0.116405 0.727819
S 15.02917 14.24016 2.16232 0.275596 -0.968257 -1.120848
S 4.35291 2.63171 1.5167 -0.233042 -0.472659 0.444543
S 12.84589 7.25819 5.53469 0.230243 0.421771 -0.567783
S 12.88502 14.90161 5.07531 0.149984 0.700071 0.573197
S 15.02835 3.74374 5.30045 0.492063 -0.075201 -0.148824
S 10.94174 8.85895 8.54986 -0.296073 0.049476 0.407834
S 17.48177 12.47202 8.70038 -0.103892 0.544779 0.083453
S 15.12099 16.28753 8.56574 -0.015343 0.123406 0.475543
S 8.58954 5.09575 8.83252 -0.087096 -0.298414 0.22254
S 17.05284 4.82246 8.64761 0.425693 0.331787 0.396769
Pb 8.78589 5.07654 14.19106 -0.198115 -0.540626 0.259893
Pb 13.09622 14.99127 0.20209 0.174394 0.432882 0.533849
Pb 17.47851 5.10641 14.17818 -0.160763 -0.333699 0.235542
Pb 21.76317 15.06621 0.16291 -0.645461 0.096893 -0.379073
Pb 2.1615 3.5434 0.0858 0.309835 0.544724 0.368042
Pb 6.62948 3.90825 0.07087 -0.654059 0.035621 0.690207
Pb 10.83098 3.6522 0.02648 0.268476 0.373213 -0.040913
Pb 23.96315 8.77742 14.17123 -0.319063 0.115273 0.626822
Pb 30.16368 12.63336 14.05122 -0.3918 -0.750654 1.237359
Pb 8.72409 7.47344 0.16218 0.2162 0.220533 0.701693
Pb 21.83951 12.4711 14.15823 -1.002008 -0.666845 0.657124
Pb 17.32146 7.55142 0.07753 0.64633 -0.955899 0.330371
Pb 23.80861 11.34867 0.0201 0.617004 0.258634 0.591736
Pb 19.59688 16.27928 14.14641 -1.563932 -0.682462 1.184955
Pb 23.82203 16.21632 14.11814 0.443424 1.41976 -0.211777
Pb 28.31269 16.25472 14.1496 -0.328263 0.013854 0.487514
Pb 11.00159 16.33392 3.64403 0.078055 -0.085459 -0.317446
Pb 15.01637 16.32623 3.75163 -0.065486 -0.341892 -0.41503
Pb 10.92906 1.33434 3.41687 -0.514119 -0.476463 0.15724
Pb 15.1928 1.39659 3.53955 0.311395 0.430655 -0.51086
Pb 4.37267 4.97193 3.55078 -0.255777 0.011011 -1.116329
Pb 8.83681 5.04763 3.5399 -0.25288 0.088925 -0.212613
Pb 13.14075 5.04953 3.70941 0.030151 0.373143 -0.371998
Pb 17.46009 5.01408 3.63085 0.197604 0.370618 -0.318921
Pb 6.67464 8.66898 3.43186 -0.627877 -0.137534 0.114761
Pb 10.97255 8.54396 3.65291 -0.374051 -0.151067 -0.00718
Pb 15.2384 8.79979 3.6216 -0.262828 -0.386157 0.710081
Pb 19.37884 8.85892 3.67884 0.808026 -0.372543 -0.485042
Pb 26.05934 12.55693 3.53126 -0.090864 -0.770114 -0.503491
Pb 13.18742 12.58367 3.52957 0.283972 0.50383 -0.086636
Pb 17.45824 12.46249 3.62834 -0.085585 0.799235 0.05321
Pb 21.8356 12.51311 3.60184 -0.187558 -0.513849 -0.599299
Pb 13.12467 17.52082 7.02771 -0.203975 -0.367006 0.522803
Pb 17.37496 17.53115 7.19032 -0.276306 -0.024564 0.123646
Pb 13.25971 2.55897 7.05423 0.28801 -0.164406 0.631694
Pb 17.38125 2.5499 7.10101 -0.280309 0.181313 0.092641
Pb 23.86937 6.22153 7.23583 0.481408 0.332456 0.173523
Pb 10.83303 6.25358 7.14788 -0.071499 0.530969 0.301305
Pb 15.21673 6.29959 7.16501 0.000467 0.000418 -0.237456
Pb 19.63688 6.21559 7.0195 -0.932957 -0.107983 1.012197
Pb 8.83086 10.11402 7.03015 -0.413758 -0.445671 0.529857
Pb 13.00436 9.93757 7.13714 0.336292 -0.36959 0.08209
Pb 17.52838 10.21078 7.11684 -0.502372 -0.068065 0.057926
Pb 21.70594 10.0679 7.20287 0.024223 0.123719 -0.328019
Pb 10.86445 13.7699 7.06801 0.185297 1.117154 0.613849
Pb 15.33886 13.76784 7.144 -0.093403 -0.070507 0.409328
Pb 19.62094 13.8616 7.054 -0.557137 -0.046924 0.165453
Pb 23.94131 13.68756 7.05554 -0.357566 -0.440401 1.015461
Pb 6.64713 3.75216 10.57806 0.023611 -0.421288 -0.678749
Pb 10.68599 3.78156 10.60642 -0.30604 0.538396 -0.67168
Pb 15.38601 3.80969 10.52123 -0.176192 -0.357616 -0.223501
Pb 19.61642 3.87794 10.77469 -0.886318 0.261201 -0.71974
Pb 8.7564 7.34154 10.66891 0.801093 0.449776 -0.922398
Pb 13.06868 7.56272 10.67374 -0.496981 0.201849 -0.644378
Pb 17.40504 7.51488 10.67174 0.455564 -0.108424 -0.58895
Pb 21.65758 7.50111 10.68188 -0.375215 0.319316 -0.556211
Pb 10.97831 11.36107 10.53798 -0.602338 -0.588657 0.016449
Pb 14.93942 11.12655 10.65319 0.775985 0.709493 -0.618175
Pb 19.74198 11.36911 10.53084 -0.528293 -0.034624 -0.134567
Pb 23.76958 11.17698 10.657 0.418288 0.097346 -0.838466
Pb 30.39013 15.05086 10.59314 0.398852 0.037671 -0.528517
Pb 17.58698 14.9626 10.55008 -0.704837 -0.174558 -0.017637
Pb 21.60687 15.13975 10.71497 0.473405 -0.364892 -1.194
Pb 26.20831 15.12163 10.61932 -0.327819 0.101566 -0.456916
128
energy=-397.40461503 config_type=nep2xyz pbc="T T T" virial="27.03261 -0.13353 1.11623 -0.13353 23.40257 -2.23835 1.11623 -2.23835 22.91459" Lattice="17.39075 0.0 0.0 8.693233 15.061503 0.0 8.699047 5.014541 14.194491" Properties=species:S:1:pos:R:3:force:R:3
Te 26.0561 10.07638 12.36154 -1.2e-05 -0.417686 -0.281964
Te 17.38467 10.05829 12.39782 -0.121132 -0.013953 -0.033572
Te 15.1714 13.63234 12.22717 -0.055212 0.148064 0.773035
Te 23.86473 13.81369 12.49071 0.15505 0.000111 0.335257
Te 30.52547 17.56668 12.34279 -0.63024 0.084101 0.202596
Te 21.75717 17.7241 12.31316 -0.444756 -0.618268 0.51643
Te 23.95575 6.28896 12.39565 0.07312 -0.011525 0.009915
Te 15.22464 6.2392 12.31667 -0.234374 0.262229 0.128408
Te 13.03427 10.09212 1.80199 0.171789 -0.056444 -0.088542
Te 17.25741 9.95416 1.621 -0.056891 0.284896 0.701944
Te 21.77276 7.76289 5.30458 -0.069371 -0.743795 -0.008506
Te 10.65897 11.13982 5.34147 0.50947 0.502678 0.008423
Te 26.11421 15.28012 5.3683 0.036565 -0.548734 -0.458863
Te 21.64539 15.09257 5.38792 0.008591 -0.109044 -0.147282
Te 6.38434 3.5752 5.18919 0.236437 0.646983 0.325064
Te 10.76331 3.79436 5.16126 0.529011 0.084244 0.779623
Se 12.96531 10.07721 12.41777 0.171678 -0.195106 -0.186712
Se 21.74388 10.05911 12.26862 -0.012978 -0.108914 0.38003
Se 28.27156 13.83601 12.2788 0.387806 -0.467245 0.459309
Se 19.68024 13.95196 12.39466 -0.356567 -0.35797 -0.018051
Se 17.17114 17.54573 12.5 0.358032 0.055477 -0.14357
Se 26.0501 17.61867 12.32072 -0.022983 -0.047423 0.048048
Se 10.66645 6.31375 12.33245 0.446807 0.012489 0.140268
Se 15.22754 6.21747 1.72093 0.040022 0.389334 0.224671
Se 21.57192 10.01044 1.80187 0.320163 -0.0571 -0.156203
Se 10.83155 13.82257 1.7159 0.132768 0.077069 0.372987
Se 19.60692 13.70224 1.55461 -0.247151 0.234982 0.584345
Se 17.41651 2.60941 1.78514 0.095533 -0.338598 0.077584
Se 8.57725 2.50293 1.6624 0.335464 0.013631 0.136325
Se 13.02794 2.64149 1.8188 -0.043829 -0.234802 0.02844
Se 8.55891 7.65267 5.2442 0.277553 -0.301079 0.204707
Se 17.41382 7.42663 5.12737 -0.210332 0.14497 0.552735
Se 23.85177 11.42671 5.18935 0.187941 -0.308275 0.054834
Se 15.26298 11.21192 5.2397 -0.256316 0.048971 0.083399
Se 19.41918 11.22853 5.37924 0.185462 0.234237 -0.412905
Se 17.34577 15.15012 5.32133 -0.046053 -0.22424 -0.17445
Se 19.62475 3.89491 5.2289 -0.111181 -0.358964 -0.02855
Se 23.71067 8.72606 8.89389 0.327189 0.030631 -0.092043
Se 15.2196 8.60067 8.82647 -0.1221 0.11602 -0.083005
Se 19.70552 8.68716 8.75494 -0.548127 0.273738 0.344211
Se 26.24195 12.7491 8.71452 -0.023587 -0.528942 0.211123
Se 13.00249 12.5367 8.61551 0.437255 -0.34894 0.364856
Se 21.76083 12.66556 8.9634 -0.4717 -0.345239 -0.330134
Se 28.04129 16.21356 8.98715 0.572869 0.80259 -0.437063
Se 19.54471 16.36499 8.7884 -0.076974 -0.261864 0.328279
Se 23.97985 16.36515 8.60772 -0.232871 0.21735 0.74581
Se 21.68986 4.96174 8.79031 -0.01737 0.081924 -0.024696
Se 12.89054 5.00879 8.79633 0.052263 0.49046 0.16902
S 19.265 6.25432 12.41324 0.799663 -0.060598 -0.260327
S 19.62111 6.26188 1.85152 -0.556597 0.032352 -0.349468
S 6.66519 6.1296 1.72676 -0.464583 0.56024 -0.234008
S 10.86296 6.20019 1.47652 -0.07687 -0.130928 0.781553
S 8.89275 10.04171 1.75204 -0.310424 0.017846 0.21101
S 23.7564 13.77968 1.66839 -0.109503 0.170037 0.126741
S 14.96119 13.83029 1.79076 0.061301 0.061194 0.164999
S 4.15499 2.77463 1.67958 0.320015 -0.814756 0.289988
S 12.94561 7.37468 5.33316 -0.152494 0.298974 0.124983
S 13.17136 15.24367 5.28293 -0.282516 -0.296823 -0.233626
S 15.08229 3.51716 5.43043 0.208302 0.533118 -0.529395
S 10.90844 8.89062 8.87577 -0.121965 -0.282853 -0.403268
S 17.34106 12.60778 8.70322 -0.160671 -0.20934 0.108986
S 15.13892 16.35363 8.79564 -0.02695 -0.152197 -0.061748
S 8.36574 4.92787 8.82107 0.922606 0.383501 -0.180168
S 17.26707 5.20509 8.76246 0.279289 -0.228138 -0.003643
Pb 17.53698 0.24299 0.16517 -0.401761 -0.547681 -0.343907
Pb 12.98498 14.99477 0.11526 0.184094 0.48933 -0.028555
Pb 17.59442 4.97356 14.03483 -0.268984 -0.038839 0.236371
Pb 21.71706 15.08487 0.09074 0.053232 0.085408 0.147765
Pb 2.26663 3.74225 0.01736 -0.101564 0.225749 -0.340365
Pb 6.32697 3.68684 0.26113 0.317384 0.372183 -0.551183
Pb 11.04032 3.83405 0.05802 -0.441882 -0.386757 -0.379191
Pb 15.27969 3.78244 0.23703 -0.241944 -0.261976 -0.444836
Pb 4.49371 7.28434 0.14731 -0.032334 0.174812 0.053991
Pb 8.84763 7.62986 0.12927 -0.27105 -0.106747 -0.179457
Pb 12.96413 7.34795 0.14211 0.183135 0.371092 -0.623305
Pb 17.43304 7.37118 0.10249 0.405257 0.106962 -0.180937
Pb 23.82753 11.43386 0.15505 0.445319 -0.237308 0.24391
Pb 10.75407 11.26715 0.16634 -0.299429 0.04687 -0.643898
Pb 15.24753 11.67971 0.19753 0.038724 -0.225682 -0.653076
Pb 19.63 11.24181 0.07744 -0.05361 -0.186143 -0.461314
Pb 2.37132 1.28007 3.57163 -0.14468 0.100001 0.230762
Pb 15.26491 16.1925 3.43108 0.090475 -0.081441 0.023044
Pb 19.42769 16.27554 3.58725 0.02316 -0.24534 -0.434664
Pb 15.10304 1.30906 3.55442 0.235653 0.138524 0.224558
Pb 21.61297 4.96492 3.34588 0.419678 0.342845 0.422753
Pb 8.72837 4.93951 3.38452 -0.712556 0.37311 -0.310005
Pb 12.98475 5.19429 3.44076 0.102674 -0.325949 0.363747
Pb 17.49683 4.95961 3.41716 0.076673 0.252286 0.517871
Pb 6.57467 8.85268 3.49175 0.143473 0.277511 -0.113038
Pb 10.92175 8.71774 3.58448 -0.377392 -0.342487 0.016113
Pb 15.09691 8.64418 3.666 0.244284 0.138564 0.298524
Pb 19.53907 8.73642 3.4994 0.00446 0.0253 -0.080087
Pb 8.68262 12.53159 3.42396 -0.593699 0.044248 0.215856
Pb 12.94061 12.66874 3.58137 0.438657 0.073431 0.245716
Pb 17.3756 12.43743 3.57175 -0.03642 0.222476 0.198315
Pb 21.68795 12.59132 3.57501 0.293114 -0.280195 -0.197537
Pb 30.26639 17.37296 7.16999 0.305801 0.512696 0.070591
Pb 17.39598 17.59221 7.2799 -0.31691 0.015242 -0.032233
Pb 13.03648 2.58141 7.19 0.185131 -0.036204 -0.187359
Pb 17.32289 2.74185 7.1571 -0.051497 0.081576 -0.22936
Pb 6.648 6.26869 7.08646 -0.203214 -0.257716 -0.022084
Pb 10.84632 6.43285 7.16218 -0.051309 -0.153299 -0.08934
Pb 15.3218 6.26333 7.07205 -0.143417 -0.324493 -0.229406
Pb 19.52587 6.2394 7.15324 0.01976 -0.307883 -0.170415
Pb 26.08618 9.93163 7.29519 -0.286134 0.266713 -0.003558
Pb 13.1055 9.80663 7.12955 0.064268 0.285645 -0.149775
Pb 17.53081 9.88151 7.07928 -0.468587 0.256677 -0.031599
Pb 21.66049 10.03909 7.2594 0.515366 0.586862 -0.419384
Pb 11.14693 14.05942 7.1471 -0.679791 -0.369202 -0.346624
Pb 15.10785 14.03988 7.05558 0.389835 -0.357746 0.193666
Pb 19.40596 13.69067 7.15326 -0.061193 0.162236 0.204886
Pb 23.87986 13.8236 7.42744 0.434638 -0.324009 -0.836262
Pb 6.55388 3.75023 10.54026 0.26899 0.007003 -0.221608
Pb 19.57028 18.80862 10.62692 -0.691316 0.184854 -0.288767
Pb 23.88217 18.75552 10.57892 0.746849 0.161142 -0.503559
Pb 19.60581 3.76214 10.57241 -0.338946 0.330051 0.100172
Pb 8.73141 7.58154 10.51507 -0.005271 -0.343669 -0.09859
Pb 13.0133 7.53735 10.55164 0.029029 0.009344 0.212296
Pb 17.53771 7.41435 10.51721 -0.100712 0.020019 0.337789
Pb 21.80693 7.5552 10.62093 -0.361719 -0.372839 0.129075
Pb 10.96669 11.18392 10.53363 0.091405 0.616609 0.13103
Pb 15.42436 11.31473 10.27755 -0.123357 -0.135458 -0.021617
Pb 19.6527 11.19475 10.61733 -0.363027 0.369169 0.045611
Pb 23.84286 11.33034 10.66724 0.238606 0.088683 -0.295616
Pb 13.08199 15.08263 10.55368 -0.236393 -0.329088 -0.219285
Pb 17.30567 15.14897 10.72701 0.542343 0.136206 -0.303614
Pb 21.8147 14.94984 10.59549 -0.343496 0.560248 0.016336
Pb 26.26605 14.98528 10.75926 -0.693204 -0.048182 0.046487
128
energy=-395.63950582 config_type=nep2xyz pbc="T T T" virial="30.17789 1.27622 -2.8669 1.27622 32.45579 3.04992 -2.8669 3.04992 36.14066" Lattice="17.39075 0.0 0.0 8.693233 15.061503 0.0 8.699047 5.014541 14.194491" Properties=species:S:1:pos:R:3:force:R:3
Te 25.94184 9.96609 12.29799 0.983782 0.084371 0.398893
Te 17.28656 10.08432 12.53642 0.097324 -0.499333 -0.352545
Te 15.21638 13.7584 12.43768 0.268837 0.31097 -0.293345
Te 23.96995 13.68245 12.22185 0.217386 0.175927 0.934442
Te 30.3634 17.68215 12.24801 0.160148 -0.218835 0.019862
Te 21.65581 17.62921 12.38478 -0.138986 0.187883 -0.144047
Te 23.96209 6.33754 12.25532 -0.067742 -0.694139 0.44945
Te 15.12032 6.53599 12.42655 0.261024 -0.954705 0.190153
Te 13.11233 10.09538 1.80555 0.037614 0.205055 -0.07864
Te 17.36319 10.15281 1.82423 -0.549491 -0.3805 -0.015406
Te 21.79907 7.36081 5.35336 -0.015379 0.19618 0.059706
Te 11.03109 11.44645 5.17518 -0.746201 -0.622171 -0.027323
Te 26.06628 14.95504 5.2075 0.0769 0.235072 -0.157386
Te 21.84456 15.14638 5.17017 -0.462872 -0.52604 0.308607
Te 6.54399 4.00098 5.04325 -0.229394 -0.333481 0.093271
Te 10.79715 3.71534 5.37232 -0.128735 0.820353 -0.1953
Se 12.87199 10.00064 12.44943 0.417323 0.394997 -0.304642
Se 21.81288 9.97595 12.57793 -0.543638 0.20306 -0.483134
Se 28.20552 13.75924 12.33541 0.077257 0.125089 -0.167028
Se 19.43547 13.8078 12.31783 0.156575 -0.013369 0.357171
Se 17.49005 17.78306 12.51511 -0.431134 -0.55606 -0.597118
Se 26.1471 17.68048 12.32186 -0.128408 0.013805 0.18711
Se 11.07311 6.2486 12.19146 -0.864857 -0.663324 1.199308
Se 15.2869 6.21693 1.67953 -0.210794 0.525403 0.196371
Se 21.56466 9.97973 1.91084 0.531802 -0.267926 -0.811174
Se 10.84645 13.64518 1.62554 -0.04135 0.399939 0.506891
Se 19.47249 13.91003 1.77388 0.223103 -0.254924 0.079069
Se 17.58931 2.74488 1.78315 -0.523848 -1.013283 0.125578
Se 8.61583 2.64519 1.92638 0.016809 -0.186746 -0.445578
Se 13.12689 2.50668 1.67319 -0.501499 0.014299 0.212966
Se 8.80717 7.53151 5.27235 -0.282568 0.127313 0.332227
Se 17.39994 7.62548 5.41371 0.252737 -0.127069 -0.139208
Se 23.82839 11.33122 5.3192 0.439958 -0.514274 0.069029
Se 15.08015 11.11912 5.21679 0.359185 0.870548 0.399777
Se 19.69871 11.221 4.95417 -0.276121 0.170089 0.712978
Se 17.22425 15.31128 5.19915 -0.04921 -0.755218 0.822475
Se 19.46642 3.75363 5.20363 0.666096 0.629581 0.539614
Se 24.04619 8.66685 8.76252 -0.275237 0.308208 0.057417
Se 15.49979 8.80544 8.71165 -0.933339 0.189582 0.048074
Se 19.32354 8.75048 8.7793 0.518358 0.088851 -0.166711
Se 25.99094 12.59516 8.96196 0.857845 -0.407721 0.018625
Se 12.96231 12.66743 8.80451 0.388532 -0.490703 -0.110878
Se 21.70249 12.5346 8.85324 -0.293502 0.073818 -0.222631
Se 28.27806 16.39211 8.71734 -0.058814 0.436345 0.074942
Se 19.56731 16.24998 8.55099 -0.023403 0.604159 0.685644
Se 23.76893 16.29263 8.75181 0.4805 0.071621 0.343734
Se 21.6619 5.0941 8.8852 0.24498 -0.210306 -0.169733
Se 13.02815 5.09929 8.85182 0.271571 -0.119363 -0.089413
S 19.45742 6.57469 12.22649 0.198667 -0.747201 0.025233
S 19.43259 5.90235 1.52 0.007828 0.918512 0.200864
S 6.3021 6.50078 1.58022 0.210029 -0.163608 0.40967
S 11.08906 6.09506 1.59259 -0.36565 0.342939 0.287581
S 8.75248 10.06645 1.51308 -0.184497 -0.188402 0.521373
S 23.68159 13.81373 1.3785 0.257594 0.010143 0.340298
S 15.49037 13.83999 1.52208 -0.496191 0.225765 0.479526
S 4.33112 2.42263 1.91162 -0.132745 0.209227 -0.366595
S 13.19474 7.60364 5.13591 -0.701977 -0.15473 0.383746
S 13.21557 15.18953 5.33428 -0.407319 -0.188461 0.176797
S 15.21723 3.65259 4.91547 0.26509 0.155751 0.762569
S 10.84774 8.82221 8.61243 -0.05429 0.188936 0.243076
S 17.23329 12.50096 8.83301 0.267801 0.299999 0.365816
S 15.25668 16.04803 8.68358 -0.297737 0.406487 0.262626
S 8.76518 5.10668 8.85414 0.288062 -0.217448 -0.107902
S 17.17335 5.0784 8.67402 0.087087 -0.216649 0.139389
Pb 25.93677 14.8969 0.16024 0.186368 0.310102 0.393828
Pb 4.47993 0.09241 0.2389 -0.335417 -0.213085 0.218085
Pb 8.72072 0.08734 0.1792 0.167818 0.049037 -0.367618
Pb 21.65563 5.07085 14.09361 -0.016167 -0.030948 0.410735
Pb 2.20542 3.6516 0.06428 0.361858 -0.146888 -0.287759
Pb 6.44475 3.71414 0.25333 -0.343989 0.735015 0.381957
Pb 10.83488 3.46772 0.03843 0.169296 0.6347 0.171238
Pb 15.13192 3.86376 0.08808 0.134126 -0.266755 0.266774
Pb 30.39385 12.67683 14.12768 -0.490136 -0.639076 0.422317
Pb 8.66159 7.43771 0.21761 0.223432 0.008597 0.234784
Pb 12.90923 7.53188 0.02128 0.162935 -0.3512 0.070168
Pb 17.47641 7.42096 0.04332 0.041626 0.034951 0.097686
Pb 6.69586 11.2911 0.0401 -0.245852 0.440661 0.074754
Pb 10.79418 11.3138 0.03492 0.058397 -0.191111 0.103575
Pb 23.9026 16.62091 14.15866 0.366759 -0.493035 0.075469
Pb 19.46403 11.37581 0.27734 0.659209 0.217569 -0.777149
Pb 19.68727 1.43653 3.81815 0.015839 -1.009239 -1.064958
Pb 6.44151 1.31584 3.56675 -0.172053 0.016654 -0.347285
Pb 19.2987 16.29365 3.71812 0.839255 -0.005796 -0.728103
Pb 15.22131 1.39279 3.41167 0.388619 -0.216512 -0.349888
Pb 21.3967 5.10055 3.28549 0.65636 -0.168391 -0.177692
Pb 8.86659 5.27661 3.42952 0.076178 -0.283395 -0.239022
Pb 13.21651 4.90248 3.56332 -0.273878 0.339645 -0.317955
Pb 17.43009 4.94236 3.47947 -0.497665 0.541268 -0.111973
Pb 6.626 8.60513 3.59232 -0.183217 0.040985 -0.296994
Pb 10.8959 8.54549 3.50596 0.45777 0.028664 -0.114004
Pb 15.31422 8.79249 3.76838 -0.325662 -0.621079 -0.647427
Pb 19.552 8.75129 3.6191 0.025572 -0.342948 -0.086435
Pb 8.52932 12.14913 3.37679 0.390593 0.679336 -0.08286
Pb 13.23994 12.74163 3.72735 0.043711 0.208848 -0.78595
Pb 17.43322 12.6642 3.65441 -0.048521 0.030563 -0.081209
Pb 21.91878 12.28211 3.49095 -0.198031 0.980608 -0.224878
Pb 13.15906 17.46091 6.9334 0.040977 0.188011 0.678145
Pb 17.21611 17.50927 7.17614 0.0743 0.146554 0.196251
Pb 13.17767 2.56862 7.00813 0.272524 -0.052531 0.254939
Pb 17.53701 2.75971 7.06134 -0.719673 -0.828173 0.322468
Pb 6.64123 6.11026 7.4028 -0.230039 0.232461 -0.101413
Pb 11.0176 6.37544 7.23958 -0.226857 -0.086236 -0.187777
Pb 15.31957 6.49188 7.02706 -0.492036 -0.390076 0.003483
Pb 19.3047 6.1321 7.163 0.535803 0.601903 0.341601
Pb 8.69155 9.93276 7.15134 0.099483 0.02622 0.146581
Pb 13.02448 9.90321 7.02389 0.064643 -0.128555 0.282153
Pb 17.35694 10.16351 7.06939 0.54021 -0.017214 0.057723
Pb 21.7486 10.06039 7.0005 -0.260364 -0.118382 0.564941
Pb 10.99824 13.95366 7.08665 -0.153229 0.057298 0.161639
Pb 15.27292 13.79133 7.17616 -0.174849 -0.117508 -0.003608
Pb 19.63547 13.9237 7.18092 0.12451 -0.704329 -0.352462
Pb 24.17831 13.659 7.21424 -0.971147 0.465518 -0.063427
Pb 15.39694 18.74122 10.54549 -0.212652 -0.010771 -0.056341
Pb 10.85417 3.9374 10.51553 -0.090995 -0.326275 -0.222489
Pb 23.90231 18.74194 10.72349 0.255723 0.007315 -0.528389
Pb 19.44048 4.07116 10.68287 0.127764 -0.098422 -0.15867
Pb 8.84604 7.38898 10.73522 0.273893 0.167224 -0.995713
Pb 12.92125 7.44359 10.72615 0.396898 1.13875 -1.140496
Pb 17.25282 7.30381 10.40785 0.772103 0.474153 0.083563
Pb 21.66406 7.53888 10.79196 -0.569124 0.415264 -0.728836
Pb 10.86261 11.1263 10.47013 0.229763 0.183064 0.189894
Pb 15.15135 11.29173 10.67944 -0.350465 -0.448595 -0.359237
Pb 19.37659 11.48811 10.68273 0.351022 -0.584811 -0.462302
Pb 23.83717 11.10823 10.61912 -0.638618 -0.005121 -0.597802
Pb 30.34196 15.00846 10.61025 -0.165489 0.07957 -0.205028
Pb 17.45302 14.86514 10.54654 -0.069501 0.39859 -0.462923
Pb 21.80555 14.94686 10.72289 -0.440666 0.250422 -0.816017
Pb 26.17158 15.09785 10.6528 0.140078 0.232646 -0.248862
128